24
Properties=species:S:1:pos:R:3:formal_charges:I:1:mbis_multipoles:R:4:forces:R:3 smiles="[H:5][C:1](=[C:2]([C:3]([H:7])([H:8])[H:9])[C:4]([H:10])([H:11])[H:12])[H:6].[H:17][C:13](=[C:14]([C:15]([H:19])([H:20])[H:21])[C:16]([H:22])([H:23])[H:24])[H:18]" energy=-8561.36346893625 REF_dipole="0.07735969871282578 0.13397160172462463 0.041624512523412704" config_type="SPICE DES370K Single Points Dataset v1.0" pbc="F F F"
C       10.80266953       9.15776062       3.54995966        0      -0.51927966      -0.01848567       0.02062432      -0.02211146      -0.00776528       0.41172305      -0.67591286
C       11.66557980       9.93463898       2.87493968        0       0.23159827       0.02150819      -0.01936168       0.02267595       0.09872977      -0.84227157       1.09043074
C       11.38249969      10.82596970       1.71654999        0      -0.47937146      -0.02129256       0.02248347      -0.00689949      -0.54425603       0.11642249      -0.46348819
C       13.11268902      10.05545998       3.31087995        0      -0.50739074      -0.00960963      -0.00451178      -0.03081321      -0.11716875      -0.51885372       0.75095856
H       11.09633923       8.57993889       4.43376017        0       0.17980555      -0.01113146       0.01893854       0.00708519      -0.04610590       0.26384211      -0.50704658
H        9.76183987       9.08267021       3.21491957        0       0.17152512      -0.00025898      -0.00966667      -0.02092202       0.40171432       0.04202568       0.25570470
H       10.34739017      10.82744026       1.33555996        0       0.14997289      -0.00196861      -0.00602915      -0.02267621       0.42075217      -0.17362076       0.35914043
H       12.05903053      10.53371906       0.89588994        0       0.15576884      -0.00960594      -0.01564947       0.01659544      -0.47069094       0.33417842       0.17505272
H       11.64060020      11.84909916       2.03780985        0       0.15613209       0.01976573       0.01264417       0.00670579      -0.13335074      -0.30293590      -0.42637980
H       13.25491905      11.08386040       3.68340993        0       0.15771481       0.02299771       0.00678226      -0.00262323       0.25159150      -0.42081672      -0.15086174
H       13.80770969       9.88613033       2.47130990        0       0.16832255      -0.00308192      -0.02083894       0.01497727      -0.40320641      -0.30445081       0.81127870
H       13.36168098       9.35006905       4.12145996        0       0.15034997      -0.01664924       0.01609418       0.00043081      -0.19243743       0.31394365      -0.33657780
C       14.60286045      11.02198982      -1.02977002        0      -0.51122808      -0.00712831      -0.03761478      -0.01714980      -0.37902597      -0.74599248       0.90120637
C       15.09439850      11.76015854      -0.03378000        0       0.22644131       0.02638943       0.03382498       0.01412650      -0.08539578       1.55091608      -0.27762502
C       16.31345940      12.67210960      -0.27370000        0      -0.47779173      -0.02078485      -0.00665796      -0.03026001      -0.30153519      -0.45074415       0.46018556
C       14.37911892      11.99211025       1.34066987        0      -0.54516250      -0.00007886      -0.03713662       0.01828212       0.77641886      -0.51191241      -1.15196204
H       13.72771931      10.40933037      -0.78484994        0       0.15700369      -0.01090331       0.00922212      -0.01759116       0.23618802       0.16457117      -0.45881727
H       15.05924988      10.88680935      -2.01700997        0       0.18523912      -0.00282825      -0.02063054       0.01006119      -0.12655023       0.27725989       0.56176889
H       17.13078880      12.30476856       0.36945996        0       0.14165644      -0.01410126       0.01457681       0.01443611      -0.15614833       0.36285412      -0.22769015
H       16.06089973      13.70142937       0.03180000        0       0.14841944       0.02029733       0.00704870      -0.01135383       0.20502545      -0.38502735      -0.08144930
H       16.66916084      12.69220924      -1.31757987        0       0.15393844      -0.00159454      -0.02321925       0.00437559      -0.31613934      -0.17352095       0.47541389
H       15.15977001      12.07564831       2.11540985        0       0.15293036       0.00039063       0.01168774       0.02019597      -0.40826437      -0.00231345      -0.17882358
H       13.70043850      11.16627979       1.61269999        0       0.19746739      -0.01993964       0.00748708      -0.01797061       0.95650816       1.30697513      -0.82497942
H       13.80064964      12.93105030       1.32142997        0       0.15607224       0.01938738      -0.00546125      -0.01198786       0.34178743      -0.31283021      -0.07903560
42
Properties=species:S:1:pos:R:3:formal_charges:I:1:mbis_multipoles:R:4:forces:R:3 smiles="[H:33][c:16]1[c:15]([c:18]([c:24]([c:25]([c:19]1[H:36])[C:14]2=[C:13]3[C:10](=[C:9]([C:8](=[N:4][H:29])[C:11](=[C:12]3[O:5][c:22]4[c:23]2[c:17]([c:20]([c:26]([c:21]4[Br:3])[N:27]([H:38])[H:39])[H:37])[H:34])[Br:2])[H:30])[H:31])[C:7](=[O:1])[O:6][C:28]([H:40])([H:41])[H:42])[H:35])[H:32]" energy=-171236.639543956 REF_dipole="0.3323509395122528 1.2978532314300537 0.030848046764731407" config_type="SPICE PubChem Set 5 Single Points Dataset v1.2" pbc="F F F"
O       -2.36441231       2.91846204       1.71316373        0      -0.58497995       0.04046500      -0.01205334      -0.03770068       1.03301930      -1.70904064       0.19869059
Br       1.38283694      -4.67704058      -0.36107156        0      -0.06473903      -0.04303734      -0.00717222       0.00726598       0.42565224       1.03466773       0.74142647
Br      -1.12130153      -2.46692038      -3.41404557        0      -0.06925456      -0.08845722       0.03078895       0.04116245       0.14309998       1.60934460       0.80150867
N        3.35651708      -4.19502115       2.03681231        0      -0.71556216       0.00331094       0.00845988      -0.00775722       1.13504577      -1.74158823       0.04640059
O        0.42917097      -1.87360787      -0.84443301        0      -0.22196716       0.01070053       0.00794390       0.00580923       0.59027487       1.55481791       0.46594182
O       -1.67341793       0.85562080       2.05767250        0      -0.34760740      -0.03448308       0.02256877       0.01861865       0.20073391      -3.59444189       1.99787450
C       -1.45653462       2.09142089       1.84199786        0       0.80095702      -0.02846268      -0.00031482      -0.03538172      -0.80640048       4.27692413      -1.59255838
C        2.76719642      -3.10483813       1.73374593        0       0.49720955      -0.01904122      -0.01022021       0.00049909       0.34297857      -2.31117582       0.61826599
C        2.95306659      -1.97022820       2.54076147        0      -0.29668415      -0.01025871       0.00838718      -0.00606913      -0.76209253       5.19690514      -0.78973538
C        2.36664629      -0.72141331       2.20219779        0      -0.14643237       0.00611886      -0.03241641      -0.01806978       1.38138151      -2.50158334       0.71867323
C        1.83305490      -3.06683278       0.63346648        0      -0.20657289      -0.07205646      -0.01053343       0.01068000      -1.35698473       0.59829575      -1.17562139
C        1.25214839      -1.88154507       0.27887240        0       0.30267638       0.02437730      -0.05506333      -0.04861237       0.63255805       0.03421606      -0.50470746
C        1.53924465      -0.58829731       0.98118377        0      -0.12554565      -0.01884975       0.02196191       0.02417634       0.23648573      -0.55614483      -0.49689031
C        1.12232494       0.58153802       0.38757500        0       0.06235896       0.02746660      -0.01562868       0.00458769      -1.50020146       1.23079300       2.16480923
C        1.34572411       4.59796286       1.87653947        0      -0.15326299      -0.01338290      -0.00658301      -0.01351974      -1.88576376       2.31992793       0.97261941
C        2.46073461       3.90330887       1.60193837        0      -0.09755855      -0.02163109       0.01300221      -0.00361308       2.09351730       1.53386736      -1.44435048
C       -0.18305448       1.74638724      -1.48109591        0      -0.02944179      -0.01840241      -0.00425312       0.01194606       2.20582628       1.30579174       4.44860649
C        0.09862579       3.94324422       1.94934404        0      -0.06671088      -0.00511870      -0.01612685       0.01940919       1.13687301      -0.43117771      -0.07924961
C        2.31307960       2.62982559       1.08759367        0      -0.18157633       0.01899459      -0.00551429      -0.00881676       2.61109066      -1.05133760       0.40530887
C       -1.19151092       1.68827951      -2.30508971        0      -0.32399657       0.00155100       0.01397239      -0.02124945      -1.81016743       1.07714343      -2.27510834
C       -0.83296579      -0.73087734      -2.50845528        0      -0.25547582      -0.05441222      -0.02790967      -0.02442415       1.09821713       1.15148687       0.35173348
C        0.06524731      -0.65572429      -1.40836465        0       0.34462664      -0.06335913       0.03096174       0.02816259      -2.25645614      -0.70398992      -0.29650620
C        0.28728116       0.61160541      -0.80304140        0      -0.16908948       0.02249433       0.01614975      -0.00801328       2.02824402      -1.80333436      -0.78446436
C       -0.05818085       2.59774709       1.63309920        0      -0.25509074      -0.00451941      -0.01748341       0.02296540       1.70910001       0.60003400       0.18915370
C        1.12162554       1.95494080       1.15601468        0       0.07210188      -0.00385740      -0.00037471      -0.01827521      -0.14883989      -2.07787681      -1.46442354
C       -1.43422830       0.52562296      -2.96222687        0       0.45425597      -0.00054528      -0.03432025      -0.03556510      -1.43104649      -4.95566082      -1.44755006
N       -2.34910226       0.35675213      -3.99445891        0      -0.88232583       0.00161581       0.03073258       0.00902231       0.64945108       3.50498962       1.49785221
C       -0.85774064       0.24887310       3.15649128        0      -0.16182503       0.02683393      -0.07423236      -0.05439694      -0.44221780       0.12165520       0.46931413
H        4.06272173      -4.25054741       2.82147837        0       0.32376552      -0.01188693       0.00774921       0.01109551      -1.41802216       0.94317085      -1.08296084
H        3.77979088      -2.08593869       3.24695945        0       0.17070331      -0.00329167       0.01294261       0.02270517      -0.75652409       0.44653568       0.21944104
H        2.62972593       0.12765945       2.84237432        0       0.16256772       0.02124461       0.01985816       0.01059597      -0.35521346      -0.14002848      -0.60044712
H        1.46810615       5.72090769       2.01208019        0       0.13570304       0.02986469      -0.00045117       0.00676043      -0.60950375      -1.67692375       0.19249353
H        3.40185142       4.54978514       1.52880251        0       0.13260062       0.02380896      -0.00230928       0.02115895      -1.11076498      -1.64143515       0.14209168
H        0.06901430       2.76254678      -1.13014638        0       0.15211681       0.03015331       0.00940785       0.00417288       0.05906494      -0.88490123       0.21910372
H       -0.78958195       4.38398457       2.29075956        0       0.16250321       0.00756419       0.00863270      -0.02916281      -0.76847816       1.06442332       0.24634561
H        3.26923227       2.13291264       0.72104692        0       0.14962089      -0.01052705      -0.00792056       0.02689842      -1.68036914       0.40615678       0.31597364
H       -1.77746856       2.58086777      -2.42456555        0       0.17240627       0.02099603       0.00725272      -0.01425305      -0.07682053       0.13650022      -0.80896884
H       -2.39078498      -0.55965853      -4.31548977        0       0.43390134      -0.01443921      -0.00171403       0.00000579      -0.54098362      -1.19837952      -1.26866543
H       -2.67316222       1.21364439      -4.47330379        0       0.40319556       0.01494064      -0.00407480      -0.00434420       0.24628434      -1.56358016       0.27385312
H       -1.55549705      -0.12396023       3.97655582        0       0.13293591      -0.01163717       0.02256870      -0.02324386       0.76928204       0.65903866      -1.34346390
H       -0.18970761       1.03956771       3.56776047        0       0.13161162       0.02587353       0.00976801       0.02025275      -0.50853759      -0.73407030      -0.25273860
H       -0.25087342      -0.58557600       2.77494383        0       0.15774454      -0.02523487      -0.01450794       0.01927241      -0.49778274       0.48419672       0.01891572
42
Properties=species:S:1:pos:R:3:formal_charges:I:1:mbis_multipoles:R:4:forces:R:3 smiles="[H:25][c:10]1[c:11]([c:12]2[c:9]([n:3][c:8]1[H:24])[N:2]=[C:7]([N:13]([C:6]2=[O:1])[C:20]([H:38])([H:39])[C:22]([H:42])([C:21]([H:40])([H:41])[N:14]3[C:18]([C:16]([O:4][C:17]([C:19]3([H:36])[H:37])([H:32])[H:33])([H:30])[H:31])([H:34])[H:35])[O:5][H:23])[C:15]([H:27])([H:28])[H:29])[H:26]" energy=-27998.67538477009 REF_dipole="0.11027444899082184 0.13936728239059448 -0.1324629932641983" config_type="SPICE PubChem Set 5 Single Points Dataset v1.2" pbc="F F F"
O       -0.09607074      -0.90146059      -0.97304028        0      -0.62004763       0.02399051      -0.02231115       0.00782277      -0.54812247       0.25903580      -0.84620756
N        0.60892451      -3.20553184       2.13613796        0      -0.62631476      -0.02858632      -0.02563873      -0.00257800       0.73160332      -0.65456420      -0.58577108
N        1.34722948      -4.99519968       0.79693681        0      -0.52487075       0.02339467      -0.03707279      -0.01470166       0.04701186       0.03452133       0.31536990
O       -0.09511551       5.88494110      -0.42309722        0      -0.34671518      -0.05500671       0.02565813       0.00747810       0.14978072       0.21140748       0.12874860
O        0.55276388       2.26658320       2.37941813        0      -0.67320859      -0.05960546      -0.02160039      -0.02920277       0.92452306       1.38569033      -0.05638353
C        0.04018470      -1.65485036      -0.02311383        0       0.73000771       0.03182090      -0.00070312      -0.00504782       0.51692694       1.37099648      -2.16496396
C        0.31169471      -1.96797836       2.28332829        0       0.60230738       0.01039480      -0.01403834      -0.00285941      -0.20656836       0.29176134       1.00238955
C        1.45205808      -5.55972338      -0.40292326        0       0.23412329       0.02878979       0.03611725       0.00005447      -0.32674783       0.35502759       2.16534114
C        0.78928936      -3.77009988       0.88912523        0       0.62707603      -0.03104199       0.05003094       0.01297766      -0.21731849       0.40651494      -1.32141078
C        0.95835716      -4.95625639      -1.53043103        0      -0.29086342       0.00920713       0.00262193       0.00463748      -0.20463614      -2.54248166      -1.73145473
C        0.43143800      -3.74633288      -1.50775933        0       0.04954923       0.00749243       0.01917958       0.00402341      -0.78476536       3.99456763       2.26027966
C        0.39009187      -3.05016208      -0.26771125        0      -0.39415690       0.00132236      -0.05074156      -0.00330992       0.59110767      -1.56025362       1.95630944
N        0.04931887      -1.06885827       1.23175681        0      -0.37790155       0.05890083       0.00995156      -0.00708631      -0.14683226      -2.41877723       1.27559459
N        0.87690932       3.30138803      -0.02290855        0      -0.27102786       0.00650123      -0.03792438       0.03400970      -0.97675216      -1.57976580      -0.43203944
C        0.26837599      -1.66615665       3.79158235        0      -0.60864216      -0.00626066      -0.00305599       0.00533974      -2.71706438       3.72928619      -1.35005653
C        0.77777874       5.68605900       0.67977023        0       0.02123792      -0.00536789      -0.07340176      -0.04555641      -1.29442012      -2.57931280       0.49262500
C       -0.86358172       4.72821903      -0.74294800        0       0.02958412       0.05092571       0.01940092       0.05980781      -1.86793184       0.62654245      -0.98187870
C        1.66513586       4.45767593       0.48379886        0      -0.19735169      -0.03758598      -0.02234509      -0.04298864      -1.77588987      -0.52661729      -2.04101658
C        0.05897715       3.63365960      -1.24880302        0      -0.14792007      -0.00502252       0.05258685       0.04148486      -0.70753640      -1.21799695       0.41709611
C       -0.32151791       0.34080920       1.35543013        0      -0.09867354      -0.05518037      -0.00801964       0.03328197      -0.11942724       0.36647955      -0.99792230
C        1.40206289       1.90228808       0.13177024        0      -0.21775009       0.05643510       0.00397234      -0.03109141      -2.03531003       0.96759975      -0.42156196
C        0.92154330       1.24307203       1.45756412        0       0.20353401       0.04385333       0.03527687      -0.03217322      -1.42789388       1.64712620      -0.36159497
H        1.01789510       3.09863997       2.08279443        0       0.46095946       0.01045638      -0.00686520       0.00291612      -1.21258461      -1.57508397       0.65094233
H        1.83811557      -6.56756306      -0.38327166        0       0.10421034      -0.03308816       0.00911110       0.01157886       0.17462012      -0.01540967      -0.28890127
H        0.77904171      -5.56222439      -2.39823008        0       0.15359528      -0.01419002      -0.01943587      -0.00983542       0.58723468      -0.12297379      -0.48468229
H        0.03376557      -3.17139435      -2.29682326        0       0.14412251       0.02343089      -0.01838157      -0.01202401      -0.31656536      -0.00662089      -1.24068737
H        1.11429548      -2.07435656       4.18573713        0       0.22008894      -0.01107175       0.00548075       0.01925925       2.05348802      -1.22096288       1.13543987
H       -0.63576895      -2.16187334       4.16898632        0       0.19556364      -0.01389742       0.00504045      -0.01869494       0.40092945       0.20691696       0.06671241
H        0.24025333      -0.54862601       4.09526825        0       0.15444048       0.02432483       0.00748048       0.00176059      -0.09340877      -1.78081703      -0.70519060
H        0.20058779       5.46952820       1.62650168        0       0.06768548      -0.01376791       0.02193022      -0.01852792       0.30792907       0.76795441      -0.78420770
H        1.45704925       6.48476934       0.74618161        0       0.12171604       0.01980683      -0.00535888       0.02364023       0.29345062       1.45305407       0.28197390
H       -1.64127326       5.01283932      -1.53205693        0       0.08122161       0.00812507      -0.02255901      -0.02013978       1.33547366      -0.02444406       0.80439442
H       -1.49466503       4.46618605       0.13087429        0       0.08281967      -0.00376610       0.02550699      -0.01590754       0.67401838      -0.37212768      -0.27203727
H        2.27495074       4.33774471       1.34990287        0       0.12499906       0.00568028       0.02152201       0.01811612       0.31915903      -0.71919185       0.65398204
H        2.25969100       4.64123535      -0.35656801        0       0.11164712      -0.00184395      -0.02793139       0.00178476       1.83411384       0.93296891      -0.99012142
H        0.58895636       4.07569838      -2.13788533        0       0.10179632       0.01574024      -0.02068428       0.00851344       0.17286798      -0.44705608       0.92254126
H       -0.54472440       2.70275474      -1.70552814        0       0.12347539      -0.02282596      -0.01245801      -0.01777504       1.43285370       1.91282248       1.55766749
H       -0.88554090       0.50791138       2.23987031        0       0.14127658       0.00952301       0.02568025      -0.01197396      -0.23499946      -0.25225952       0.98142678
H       -1.04875076       0.62151188       0.53663671        0       0.14062765       0.00826861      -0.02478137      -0.01847721       1.28357708      -0.41544911       0.64071804
H        0.98740113       1.25598240      -0.68405056        0       0.17183909      -0.01762111      -0.01739270      -0.01878714       0.96497446       0.76006871       0.44480312
H        2.44961643       2.02290535       0.16794498        0       0.11716514       0.01305691       0.00361854       0.02381045       1.40927076      -0.60606235      -0.32539031
H        1.70869768       0.71168840       1.91527402        0       0.07863206      -0.01197818       0.01909659       0.02123137       1.00659382      -1.04355395       0.22589447
20
Properties=species:S:1:pos:R:3:formal_charges:I:1:mbis_multipoles:R:4:forces:R:3 smiles="[H:15][C:9]1([C:6](=[N:4][N:7]([C:5]1=[O:2])[C:11]([H:19])([H:20])[C:10]([H:17])([H:18])[C:3]#[N:1])[C:8]([H:12])([H:13])[H:14])[H:16]" energy=-13930.860058871343 REF_dipole="-1.0630608797073364 0.07996013015508652 0.8779041767120361" config_type="SPICE PubChem Set 1 Single Points Dataset v1.2" pbc="F F F"
N        3.63903785       0.52117330      -3.54258156        0      -0.45341954      -0.01104340      -0.05107382       0.04396400      -2.23882103       0.79560637       2.97943783
O        2.48717356       0.67342693       1.82201970        0      -0.58639699       0.00869598       0.01502661       0.04162731      -1.70065403      -0.56945109      -0.96019459
C        2.98024154       0.79068869      -2.60050821        0       0.36760080       0.00846063       0.03909212      -0.02432793       2.37768173      -0.61248696      -2.71185899
N       -0.63973379       0.21999009       0.37801412        0      -0.36424166      -0.00018001       0.00471783       0.08377605      -1.42215800       0.11922683       3.27249360
C        1.28887486       0.47739673       1.57757556        0       0.65433037       0.00395609      -0.00559397       0.02074730       2.69004250       0.45415387       0.75140899
C       -0.97071868       0.37964347       1.65535784        0       0.37287742       0.00122703       0.00065169      -0.00344240      -1.27291369       0.45530558      -1.60807765
N        0.72226882       0.18852083       0.34321269        0      -0.10069795      -0.00408400      -0.05556614      -0.05296113       1.70834351      -0.06913339       0.34543946
C       -2.41981697       0.56391352       2.09970474        0      -0.54764831      -0.00622456      -0.00346836       0.01442906       0.69823730       0.92327684      -0.99369347
C        0.18100001       0.54836094       2.61728764        0      -0.53656113       0.00609733       0.01078502      -0.00524255      -0.39751208      -0.40548274      -1.53175092
C        2.21455550       1.13008893      -1.39801097        0      -0.37563887      -0.02797417      -0.00333476      -0.01020465       0.66845053       0.83123803       0.89836401
C        1.47560513      -0.12801394      -0.87978476        0      -0.05869633       0.04802727       0.03703912      -0.01741134      -0.18943827       0.67409283       0.25898889
H       -2.87807727      -0.41472104       2.22647166        0       0.18287481      -0.02348546      -0.00048220      -0.00711744      -0.23469616       0.18316092       0.18097794
H       -2.94048905       1.14687002       1.28619862        0       0.17904656       0.01258051      -0.02147368      -0.00594968       0.30591190      -0.77611631       0.98566031
H       -2.42489815       1.16489649       3.03808379        0       0.16862334       0.01386178       0.01953611       0.00332254      -0.20365362      -0.64006531      -0.67969382
H        0.25267804      -0.29098722       3.32443976        0       0.21305573      -0.01874694       0.01436832       0.00198724       0.07284533       0.24517553      -0.25174123
H        0.15596972       1.48798990       3.19438863        0       0.21486416       0.02070021       0.01157664       0.00088125       0.08702804      -0.41518864      -0.45179820
H        1.54372978       1.97370028      -1.65125453        0       0.18162963       0.01975076      -0.00685961      -0.01628281       0.04650444      -0.67762232       0.14385188
H        2.90852046       1.55109894      -0.58421761        0       0.19868818       0.00778656       0.02252219       0.01635801      -0.86278653      -0.86629117      -1.24946702
H        2.21056771      -0.91018146      -0.65561831        0       0.13784817      -0.01893042       0.00860613       0.02476051      -0.20977491       0.24194686      -0.02709068
H        0.79705477      -0.49031183      -1.66723549        0       0.15190902      -0.00507302      -0.02457931      -0.02002724       0.07865457       0.10888288       0.64949489
45
Properties=species:S:1:pos:R:3:formal_charges:I:1:mbis_multipoles:R:4:forces:R:3 smiles="[H:25][c:6]1[c:5]([c:9]([c:7]([c:8]2[c:10]1[N+:13](=[O:2])[C:23]3([N:11]2[H:26])[C:21]([C:19]([C:18]([C:20]([C:22]3([H:44])[H:45])([H:40])[H:41])([H:36])[H:37])([H:38])[H:39])([H:42])[H:43])[N-:4][C:15]([H:30])([H:31])[C:17]([H:34])([H:35])[C:16]([H:32])([H:33])[C:14]([H:27])([H:28])[H:29])[N+:12](=[O:1])[O-:3])[H:24]" energy=-29064.028296844008 REF_dipole="-0.04093770310282707 1.064406156539917 1.8205537796020508" config_type="SPICE PubChem Set 2 Single Points Dataset v1.2" pbc="F F F"
O        1.76580441      -1.81990635      -3.84560895        0      -0.42926392       0.02027125      -0.00311979       0.01059905      -0.45409745      -0.11669742       0.43245351
O        1.31517339      -1.82345462       3.31372380        0      -0.36327606       0.00618463      -0.02881137       0.00179916      -0.09093627      -0.65618414       2.48319650
O        0.23612215      -3.27085972      -3.36636567        0      -0.45074543      -0.01170631      -0.00290041      -0.01251403      -0.09373951      -0.48134467      -0.32337293
N        1.11060297       0.43794206      -2.05315781        0      -0.55596614      -0.05528864      -0.08113822      -0.03089466      -1.38160324      -1.88879013       3.52355242
C        1.14011693      -3.14904737      -0.78365904        0      -0.06144465       0.01420509       0.00137715      -0.00214112      -0.23927154       0.78819716       1.33668756
C        1.17921138      -2.90922880       0.59238690        0      -0.35267314       0.02158374       0.00044583      -0.00319252       0.20307931      -1.27427137      -0.53927189
C        1.09942222      -0.72603744      -1.22503018        0       0.17702244       0.02376795      -0.03078778       0.01249755       0.25894174       2.94775033      -5.04173326
C        1.12499762      -0.53201115       0.18026100        1       0.32265306       0.04324259       0.00338297      -0.00790364       0.94617474       1.92349410       1.41270840
C        1.06440330      -2.07039070      -1.70706999        0      -0.17149372      -0.00262311      -0.02447612      -0.00003024      -0.04162524       0.50311947       3.61575270
C        1.15309966      -1.59979391       1.06752896        0       0.04790154      -0.03685112       0.02577410       0.00321463      -0.91223192       0.13226461       0.65025109
N        1.15911603       0.61769158       0.91265082        0      -0.55374622      -0.01522955       0.02363314      -0.00552339       0.28692424      -0.95311046      -2.30798054
N        1.01892936      -2.39078856      -3.05013871        0       0.73569363      -0.00847793      -0.03657907      -0.00093474       0.29708937       0.15823957      -2.28609538
N        1.13059068      -1.10742831       2.35897255        0       0.26752555      -0.03622747       0.05829108       0.00583621       0.73085523      -0.16026343      -3.15274405
C       -1.56713212       3.72746253      -1.60255659        0      -0.43910724      -0.03911951      -0.01363989       0.00746763      -0.65832734       0.58120233       0.88595057
C        0.08746593       0.67756081      -3.09991550        0       0.02883758       0.01845412       0.05983567       0.04455911       1.35624540      -1.49489689      -0.34729224
C       -1.20746124       2.26933789      -1.76622057        0      -0.15490203       0.02230152      -0.02407005       0.00731668       0.63510364       1.70362329       0.20073408
C       -0.36836800       2.15175462      -3.02436161        0      -0.28253537      -0.00695545       0.02600498      -0.00276084      -0.68073338      -2.05167699       0.28004143
C        0.97216976       1.86625612       4.85854149        0      -0.22712407      -0.02546710      -0.03493427       0.00194374       0.00119983      -0.79868084       1.38931048
C       -0.26954183       1.13693190       4.34335709        0      -0.23136868       0.00539339      -0.02150284       0.03166525      -0.08509751       0.62377840      -0.60011727
C        2.25517726       1.13134825       4.44020939        0      -0.21241921       0.01371131      -0.03014993      -0.03089853      -0.45039201       0.04598282       1.14441371
C       -0.13856938       1.09004223       2.80635905        0      -0.30860171      -0.00077717       0.03347199       0.01571915      -0.42261675      -1.25078678       1.67727828
C        2.40000677       1.02700937       2.95907307        0      -0.33055025       0.00634803       0.02887581      -0.02412248       0.49467215      -0.23253250      -0.00522750
C        1.15379059       0.37196565       2.34446883        0       0.37430847      -0.00955262      -0.00788904       0.00029966      -0.26405743       1.80050755      -1.58620393